; Production MD — CHARMM36, semiisotropic pressure coupling for membranes
; 100 ns at 310.15 K
integrator      = md
nsteps          = 50000000     ; 100 ns
dt              = 0.002

nstxout         = 5000         ; save coords every 10 ps
nstvout         = 0
nstfout         = 0
nstenergy       = 5000
nstlog          = 5000
nstxout-compressed = 5000
compressed-x-precision = 1000

continuation    = yes
constraint_algorithm = lincs
constraints     = h-bonds
lincs_iter      = 1
lincs_order     = 4

cutoff-scheme   = Verlet
nstlist         = 10
coulombtype     = PME
pme_order       = 4
fourierspacing  = 0.16
rcoulomb        = 1.2
vdwtype         = cutoff
vdw-modifier    = force-switch
rvdw-switch     = 1.0
rvdw            = 1.2
DispCorr        = no

tcoupl          = Nose-Hoover
tc-grps         = System
tau_t           = 1.0
ref_t           = 310.15

pcoupl          = Parrinello-Rahman
pcoupltype      = semiisotropic
tau_p           = 5.0
ref_p           = 1.0  1.0
compressibility = 4.5e-5  4.5e-5

pbc             = xyz
gen_vel         = no
